Molecule Name,SMILES,Carbon Number,Hydroxyl Groups,Carboxyl Groups,Unsaturated Bonds,Halogen Substituents,Aromatic Rings,Substituent Type,Substituent Position,Phenolic Hydroxyl,pKa
p-Hydroxybenzoic acid,O=C(O)c1ccc(O)cc1,7,1,1,1,0,1,1,3,1,4.54
o-Nitrophenol,O=N+c1ccccc1O,6,1,0,1,0,1,-1,1,1,7.23
Molecule Name,SMILES,Carbon Number,Hydroxyl Groups,Carboxyl Groups,Unsaturated Bonds,Halogen Substituents,pKa,,,,
Valeric acid,CCCCC(=O)O,5,0,1,0,0,4.84,,,,